TITLE = "Results"
VARIABLES = "X", "Y", "P", "A_p"
ZONE I=   31, J=   11, F=POINT
   0.000000E+00   0.000000E+00   7.719584E-01   7.331312E-01
   3.333333E-02   0.000000E+00   7.631440E-01   7.331312E-01
   6.666667E-02   0.000000E+00   7.543862E-01   7.331312E-01
   1.000000E-01   0.000000E+00   7.456805E-01   7.331312E-01
   1.333333E-01   0.000000E+00   7.370234E-01   7.331312E-01
   1.666667E-01   0.000000E+00   7.284121E-01   7.331312E-01
   2.000000E-01   0.000000E+00   7.198443E-01   7.331312E-01
   2.333333E-01   0.000000E+00   7.113176E-01   7.331312E-01
   2.666667E-01   0.000000E+00   7.028301E-01   7.331312E-01
   3.000000E-01   0.000000E+00   6.943801E-01   7.331312E-01
   3.333333E-01   0.000000E+00   6.859657E-01   7.331312E-01
   3.666667E-01   0.000000E+00   6.775854E-01   7.331312E-01
   4.000000E-01   0.000000E+00   6.692377E-01   7.331312E-01
   4.333333E-01   0.000000E+00   6.609211E-01   7.331312E-01
   4.666667E-01   0.000000E+00   6.526342E-01   7.331312E-01
   5.000000E-01   0.000000E+00   6.443757E-01   7.331312E-01
   5.333333E-01   0.000000E+00   6.361440E-01   7.331312E-01
   5.666667E-01   0.000000E+00   6.279380E-01   7.331312E-01
   6.000000E-01   0.000000E+00   6.197563E-01   7.331312E-01
   6.333333E-01   0.000000E+00   6.115973E-01   7.331312E-01
   6.666667E-01   0.000000E+00   6.034598E-01   7.331312E-01
   7.000000E-01   0.000000E+00   5.953421E-01   7.331312E-01
   7.333333E-01   0.000000E+00   5.107200E-01   6.375111E-01
   7.666667E-01   0.000000E+00   4.364082E-01   5.461423E-01
   8.000000E-01   0.000000E+00   3.658197E-01   4.586627E-01
   8.333333E-01   0.000000E+00   2.984849E-01   3.747547E-01
   8.666667E-01   0.000000E+00   2.340409E-01   2.941381E-01
   9.000000E-01   0.000000E+00   1.721955E-01   2.165643E-01
   9.333333E-01   0.000000E+00   1.127064E-01   1.418121E-01
   9.666667E-01   0.000000E+00   5.536729E-02   6.968329E-02
   1.000000E+00   0.000000E+00   0.000000E+00   0.000000E+00
   0.000000E+00   0.000000E+00   7.719584E-01   7.331312E-01
   3.315073E-02   3.484282E-03   7.618626E-01   7.331312E-01
   6.630146E-02   6.968564E-03   7.520374E-01   7.331312E-01
   9.945219E-02   1.045285E-02   7.423957E-01   7.331312E-01
   1.326029E-01   1.393713E-02   7.329053E-01   7.331312E-01
   1.657536E-01   1.742141E-02   7.235471E-01   7.331312E-01
   1.989044E-01   2.090569E-02   7.143079E-01   7.331312E-01
   2.320551E-01   2.438997E-02   7.051781E-01   7.331312E-01
   2.652058E-01   2.787426E-02   6.961502E-01   7.331312E-01
   2.983566E-01   3.135854E-02   6.872183E-01   7.331312E-01
   3.315073E-01   3.484282E-02   6.783777E-01   7.331312E-01
   3.646580E-01   3.832710E-02   6.696247E-01   7.331312E-01
   3.978088E-01   4.181139E-02   6.609567E-01   7.331312E-01
   4.309595E-01   4.529567E-02   6.523716E-01   7.331312E-01
   4.641102E-01   4.877995E-02   6.438687E-01   7.331312E-01
   4.972609E-01   5.226423E-02   6.354479E-01   7.331312E-01
   5.304117E-01   5.574851E-02   6.271107E-01   7.331312E-01
   5.635624E-01   5.923280E-02   6.188602E-01   7.331312E-01
   5.967131E-01   6.271708E-02   6.107019E-01   7.331312E-01
   6.298639E-01   6.620136E-02   6.026448E-01   7.331312E-01
   6.630146E-01   6.968564E-02   5.947031E-01   7.331312E-01
   6.961653E-01   7.316992E-02   5.868987E-01   7.331312E-01
   7.293161E-01   7.665421E-02   5.089448E-01   6.375111E-01
   7.624668E-01   8.013849E-02   4.351097E-01   5.461423E-01
   7.956175E-01   8.362277E-02   3.648548E-01   4.586627E-01
   8.287682E-01   8.710705E-02   2.977667E-01   3.747547E-01
   8.619190E-01   9.059133E-02   2.335151E-01   2.941381E-01
   8.950697E-01   9.407562E-02   1.718272E-01   2.165643E-01
   9.282204E-01   9.755990E-02   1.124730E-01   1.418121E-01
   9.613712E-01   1.010442E-01   5.525471E-02   6.968329E-02
   9.945219E-01   1.045285E-01   0.000000E+00   0.000000E+00
   0.000000E+00   0.000000E+00   7.719584E-01   7.331312E-01
   3.260492E-02   6.930390E-03   7.606876E-01   7.331312E-01
   6.520984E-02   1.386078E-02   7.498940E-01   7.331312E-01
   9.781476E-02   2.079117E-02   7.394108E-01   7.331312E-01
   1.304197E-01   2.772156E-02   7.291775E-01   7.331312E-01
   1.630246E-01   3.465195E-02   7.191593E-01   7.331312E-01
   1.956295E-01   4.158234E-02   7.093328E-01   7.331312E-01
   2.282344E-01   4.851273E-02   6.996810E-01   7.331312E-01
   2.608394E-01   5.544312E-02   6.901909E-01   7.331312E-01
   2.934443E-01   6.237351E-02   6.808526E-01   7.331312E-01
   3.260492E-01   6.930390E-02   6.716584E-01   7.331312E-01
   3.586541E-01   7.623429E-02   6.626022E-01   7.331312E-01
   3.912590E-01   8.316468E-02   6.536798E-01   7.331312E-01
   4.238640E-01   9.009507E-02   6.448882E-01   7.331312E-01
   4.564689E-01   9.702546E-02   6.362258E-01   7.331312E-01
   4.890738E-01   1.039558E-01   6.276924E-01   7.331312E-01
   5.216787E-01   1.108862E-01   6.192894E-01   7.331312E-01
   5.542836E-01   1.178166E-01   6.110198E-01   7.331312E-01
   5.868886E-01   1.247470E-01   6.028885E-01   7.331312E-01
   6.194935E-01   1.316774E-01   5.949021E-01   7.331312E-01
   6.520984E-01   1.386078E-01   5.870690E-01   7.331312E-01
   6.847033E-01   1.455382E-01   5.793983E-01   7.331312E-01
   7.173082E-01   1.524686E-01   5.036185E-01   6.375111E-01
   7.499132E-01   1.593990E-01   4.312138E-01   5.461423E-01
   7.825181E-01   1.663294E-01   3.619594E-01   4.586627E-01
   8.151230E-01   1.732597E-01   2.956117E-01   3.747547E-01
   8.477279E-01   1.801901E-01   2.319372E-01   2.941381E-01
   8.803328E-01   1.871205E-01   1.707219E-01   2.165643E-01
   9.129378E-01   1.940509E-01   1.117727E-01   1.418121E-01
   9.455427E-01   2.009813E-01   5.491690E-02   6.968329E-02
   9.781476E-01   2.079117E-01   0.000000E+00   0.000000E+00
   0.000000E+00   0.000000E+00   7.719584E-01   7.331312E-01
   3.170188E-02   1.030057E-02   7.596284E-01   7.331312E-01
   6.340377E-02   2.060113E-02   7.479705E-01   7.331312E-01
   9.510565E-02   3.090170E-02   7.367420E-01   7.331312E-01
   1.268075E-01   4.120227E-02   7.258562E-01   7.331312E-01
   1.585094E-01   5.150283E-02   7.152631E-01   7.331312E-01
   1.902113E-01   6.180340E-02   7.049296E-01   7.331312E-01
   2.219132E-01   7.210397E-02   6.948316E-01   7.331312E-01
   2.536151E-01   8.240453E-02   6.849510E-01   7.331312E-01
   2.853170E-01   9.270510E-02   6.752736E-01   7.331312E-01
   3.170188E-01   1.030057E-01   6.657884E-01   7.331312E-01
   3.487207E-01   1.133062E-01   6.564868E-01   7.331312E-01
   3.804226E-01   1.236068E-01   6.473622E-01   7.331312E-01
   4.121245E-01   1.339074E-01   6.384096E-01   7.331312E-01
   4.438264E-01   1.442079E-01   6.296256E-01   7.331312E-01
   4.755283E-01   1.545085E-01   6.210082E-01   7.331312E-01
   5.072301E-01   1.648091E-01   6.125563E-01   7.331312E-01
   5.389320E-01   1.751096E-01   6.042704E-01   7.331312E-01
   5.706339E-01   1.854102E-01   5.961513E-01   7.331312E-01
   6.023358E-01   1.957108E-01   5.882008E-01   7.331312E-01
   6.340377E-01   2.060113E-01   5.804208E-01   7.331312E-01
   6.657396E-01   2.163119E-01   5.728120E-01   7.331312E-01
   6.974414E-01   2.266125E-01   4.982536E-01   6.375111E-01
   7.291433E-01   2.369130E-01   4.269077E-01   5.461423E-01
   7.608452E-01   2.472136E-01   3.585479E-01   4.586627E-01
   7.925471E-01   2.575142E-01   2.929577E-01   3.747547E-01
   8.242490E-01   2.678147E-01   2.299338E-01   2.941381E-01
   8.559509E-01   2.781153E-01   1.692893E-01   2.165643E-01
   8.876527E-01   2.884159E-01   1.108531E-01   1.418121E-01
   9.193546E-01   2.987164E-01   5.447016E-02   6.968329E-02
   9.510565E-01   3.090170E-01   0.000000E+00   0.000000E+00
   0.000000E+00   0.000000E+00   7.719584E-01   7.331312E-01
   3.045152E-02   1.355789E-02   7.586934E-01   7.331312E-01
   6.090303E-02   2.711578E-02   7.462791E-01   7.331312E-01
   9.135455E-02   4.067366E-02   7.344032E-01   7.331312E-01
   1.218061E-01   5.423155E-02   7.229546E-01   7.331312E-01
   1.522576E-01   6.778944E-02   7.118696E-01   7.331312E-01
   1.827091E-01   8.134733E-02   7.011057E-01   7.331312E-01
   2.131606E-01   9.490522E-02   6.906325E-01   7.331312E-01
   2.436121E-01   1.084631E-01   6.804264E-01   7.331312E-01
   2.740636E-01   1.220210E-01   6.704695E-01   7.331312E-01
   3.045152E-01   1.355789E-01   6.607473E-01   7.331312E-01
   3.349667E-01   1.491368E-01   6.512481E-01   7.331312E-01
   3.654182E-01   1.626947E-01   6.419625E-01   7.331312E-01
   3.958697E-01   1.762525E-01   6.328830E-01   7.331312E-01
   4.263212E-01   1.898104E-01   6.240036E-01   7.331312E-01
   4.567727E-01   2.033683E-01   6.153193E-01   7.331312E-01
   4.872242E-01   2.169262E-01   6.068263E-01   7.331312E-01
   5.176758E-01   2.304841E-01   5.985212E-01   7.331312E-01
   5.481273E-01   2.440420E-01   5.904013E-01   7.331312E-01
   5.785788E-01   2.575999E-01   5.824640E-01   7.331312E-01
   6.090303E-01   2.711578E-01   5.747065E-01   7.331312E-01
   6.394818E-01   2.847157E-01   5.671252E-01   7.331312E-01
   6.699333E-01   2.982735E-01   4.934375E-01   6.375111E-01
   7.003849E-01   3.118314E-01   4.228971E-01   5.461423E-01
   7.308364E-01   3.253893E-01   3.552700E-01   4.586627E-01
   7.612879E-01   3.389472E-01   2.903432E-01   3.747547E-01
   7.917394E-01   3.525051E-01   2.279225E-01   2.941381E-01
   8.221909E-01   3.660630E-01   1.678311E-01   2.165643E-01
   8.526424E-01   3.796209E-01   1.099085E-01   1.418121E-01
   8.830939E-01   3.931788E-01   5.400887E-02   6.968329E-02
   9.135455E-01   4.067366E-01   0.000000E+00   0.000000E+00
   0.000000E+00   0.000000E+00   7.719584E-01   7.331312E-01
   2.886751E-02   1.666667E-02   7.578899E-01   7.331312E-01
   5.773503E-02   3.333333E-02   7.448305E-01   7.331312E-01
   8.660254E-02   5.000000E-02   7.324061E-01   7.331312E-01
   1.154701E-01   6.666667E-02   7.204835E-01   7.331312E-01
   1.443376E-01   8.333333E-02   7.089870E-01   7.331312E-01
   1.732051E-01   1.000000E-01   6.978659E-01   7.331312E-01
   2.020726E-01   1.166667E-01   6.870834E-01   7.331312E-01
   2.309401E-01   1.333333E-01   6.766116E-01   7.331312E-01
   2.598076E-01   1.500000E-01   6.664283E-01   7.331312E-01
   2.886751E-01   1.666667E-01   6.565156E-01   7.331312E-01
   3.175426E-01   1.833333E-01   6.468589E-01   7.331312E-01
   3.464102E-01   2.000000E-01   6.374458E-01   7.331312E-01
   3.752777E-01   2.166667E-01   6.282660E-01   7.331312E-01
   4.041452E-01   2.333333E-01   6.193105E-01   7.331312E-01
   4.330127E-01   2.500000E-01   6.105716E-01   7.331312E-01
   4.618802E-01   2.666667E-01   6.020424E-01   7.331312E-01
   4.907477E-01   2.833333E-01   5.937164E-01   7.331312E-01
   5.196152E-01   3.000000E-01   5.855877E-01   7.331312E-01
   5.484828E-01   3.166667E-01   5.776507E-01   7.331312E-01
   5.773503E-01   3.333333E-01   5.698994E-01   7.331312E-01
   6.062178E-01   3.500000E-01   5.623278E-01   7.331312E-01
   6.350853E-01   3.666667E-01   4.893143E-01   6.375111E-01
   6.639528E-01   3.833333E-01   4.194103E-01   5.461423E-01
   6.928203E-01   4.000000E-01   3.523791E-01   4.586627E-01
   7.216878E-01   4.166667E-01   2.880087E-01   3.747547E-01
   7.505553E-01   4.333333E-01   2.261084E-01   2.941381E-01
   7.794229E-01   4.500000E-01   1.665059E-01   2.165643E-01
   8.082904E-01   4.666667E-01   1.090455E-01   1.418121E-01
   8.371579E-01   4.833333E-01   5.358620E-02   6.968329E-02
   8.660254E-01   5.000000E-01   0.000000E+00   0.000000E+00
   0.000000E+00   0.000000E+00   7.719584E-01   7.331312E-01
   2.696723E-02   1.959284E-02   7.572241E-01   7.331312E-01
   5.393447E-02   3.918568E-02   7.436337E-01   7.331312E-01
   8.090170E-02   5.877853E-02   7.307599E-01   7.331312E-01
   1.078689E-01   7.837137E-02   7.184514E-01   7.331312E-01
   1.348362E-01   9.796421E-02   7.066217E-01   7.331312E-01
   1.618034E-01   1.175571E-01   6.952131E-01   7.331312E-01
   1.887706E-01   1.371499E-01   6.841834E-01   7.331312E-01
   2.157379E-01   1.567427E-01   6.735004E-01   7.331312E-01
   2.427051E-01   1.763356E-01   6.631385E-01   7.331312E-01
   2.696723E-01   1.959284E-01   6.530764E-01   7.331312E-01
   2.966396E-01   2.155213E-01   6.432967E-01   7.331312E-01
   3.236068E-01   2.351141E-01   6.337843E-01   7.331312E-01
   3.505740E-01   2.547069E-01   6.245261E-01   7.331312E-01
   3.775413E-01   2.742998E-01   6.155105E-01   7.331312E-01
   4.045085E-01   2.938926E-01   6.067271E-01   7.331312E-01
   4.314757E-01   3.134855E-01   5.981666E-01   7.331312E-01
   4.584430E-01   3.330783E-01   5.898201E-01   7.331312E-01
   4.854102E-01   3.526712E-01   5.816793E-01   7.331312E-01
   5.123774E-01   3.722640E-01   5.737362E-01   7.331312E-01
   5.393447E-01   3.918568E-01   5.659831E-01   7.331312E-01
   5.663119E-01   4.114497E-01   5.584121E-01   7.331312E-01
   5.932791E-01   4.310425E-01   4.859277E-01   6.375111E-01
   6.202464E-01   4.506354E-01   4.165266E-01   5.461423E-01
   6.472136E-01   4.702282E-01   3.499722E-01   4.586627E-01
   6.741808E-01   4.898210E-01   2.860535E-01   3.747547E-01
   7.011481E-01   5.094139E-01   2.245814E-01   2.941381E-01
   7.281153E-01   5.290067E-01   1.653861E-01   2.165643E-01
   7.550825E-01   5.485996E-01   1.083143E-01   1.418121E-01
   7.820498E-01   5.681924E-01   5.322751E-02   6.968329E-02
   8.090170E-01   5.877853E-01   0.000000E+00   0.000000E+00
   0.000000E+00   0.000000E+00   7.719584E-01   7.331312E-01
   2.477149E-02   2.230435E-02   7.567012E-01   7.331312E-01
   4.954299E-02   4.460871E-02   7.426956E-01   7.331312E-01
   7.431448E-02   6.691306E-02   7.294722E-01   7.331312E-01
   9.908598E-02   8.921741E-02   7.168647E-01   7.331312E-01
   1.238575E-01   1.115218E-01   7.047781E-01   7.331312E-01
   1.486290E-01   1.338261E-01   6.931489E-01   7.331312E-01
   1.734005E-01   1.561305E-01   6.819305E-01   7.331312E-01
   1.981720E-01   1.784348E-01   6.710872E-01   7.331312E-01
   2.229434E-01   2.007392E-01   6.605902E-01   7.331312E-01
   2.477149E-01   2.230435E-01   6.504157E-01   7.331312E-01
   2.724864E-01   2.453479E-01   6.405437E-01   7.331312E-01
   2.972579E-01   2.676522E-01   6.309566E-01   7.331312E-01
   3.220294E-01   2.899566E-01   6.216391E-01   7.331312E-01
   3.468009E-01   3.122609E-01   6.125776E-01   7.331312E-01
   3.715724E-01   3.345653E-01   6.037595E-01   7.331312E-01
   3.963439E-01   3.568697E-01   5.951735E-01   7.331312E-01
   4.211154E-01   3.791740E-01   5.868090E-01   7.331312E-01
   4.458869E-01   4.014784E-01   5.786558E-01   7.331312E-01
   4.706584E-01   4.237827E-01   5.707047E-01   7.331312E-01
   4.954299E-01   4.460871E-01   5.629466E-01   7.331312E-01
   5.202014E-01   4.683914E-01   5.553725E-01   7.331312E-01
   5.449729E-01   4.906958E-01   4.832911E-01   6.375111E-01
   5.697444E-01   5.130001E-01   4.142745E-01   5.461423E-01
   5.945159E-01   5.353045E-01   3.480866E-01   4.586627E-01
   6.192874E-01   5.576088E-01   2.845173E-01   3.747547E-01
   6.440588E-01   5.799132E-01   2.233787E-01   2.941381E-01
   6.688303E-01   6.022175E-01   1.645024E-01   2.165643E-01
   6.936018E-01   6.245219E-01   1.077365E-01   1.418121E-01
   7.183733E-01   6.468263E-01   5.294382E-02   6.968329E-02
   7.431448E-01   6.691306E-01   0.000000E+00   0.000000E+00
   0.000000E+00   0.000000E+00   7.719584E-01   7.331312E-01
   2.230435E-02   2.477149E-02   7.563250E-01   7.331312E-01
   4.460871E-02   4.954299E-02   7.420218E-01   7.331312E-01
   6.691306E-02   7.431448E-02   7.285487E-01   7.331312E-01
   8.921741E-02   9.908598E-02   7.157283E-01   7.331312E-01
   1.115218E-01   1.238575E-01   7.034594E-01   7.331312E-01
   1.338261E-01   1.486290E-01   6.916742E-01   7.331312E-01
   1.561305E-01   1.734005E-01   6.803229E-01   7.331312E-01
   1.784348E-01   1.981720E-01   6.693671E-01   7.331312E-01
   2.007392E-01   2.229434E-01   6.587756E-01   7.331312E-01
   2.230435E-01   2.477149E-01   6.485227E-01   7.331312E-01
   2.453479E-01   2.724864E-01   6.385862E-01   7.331312E-01
   2.676522E-01   2.972579E-01   6.289470E-01   7.331312E-01
   2.899566E-01   3.220294E-01   6.195881E-01   7.331312E-01
   3.122609E-01   3.468009E-01   6.104940E-01   7.331312E-01
   3.345653E-01   3.715724E-01   6.016510E-01   7.331312E-01
   3.568697E-01   3.963439E-01   5.930461E-01   7.331312E-01
   3.791740E-01   4.211154E-01   5.846676E-01   7.331312E-01
   4.014784E-01   4.458869E-01   5.765043E-01   7.331312E-01
   4.237827E-01   4.706584E-01   5.685459E-01   7.331312E-01
   4.460871E-01   4.954299E-01   5.607825E-01   7.331312E-01
   4.683914E-01   5.202014E-01   5.532044E-01   7.331312E-01
   4.906958E-01   5.449729E-01   4.814079E-01   6.375111E-01
   5.130001E-01   5.697444E-01   4.126635E-01   5.461423E-01
   5.353045E-01   5.945159E-01   3.467357E-01   4.586627E-01
   5.576088E-01   6.192874E-01   2.834152E-01   3.747547E-01
   5.799132E-01   6.440588E-01   2.225149E-01   2.941381E-01
   6.022175E-01   6.688303E-01   1.638671E-01   2.165643E-01
   6.245219E-01   6.936018E-01   1.073208E-01   1.418121E-01
   6.468263E-01   7.183733E-01   5.273965E-02   6.968329E-02
   6.691306E-01   7.431448E-01   0.000000E+00   0.000000E+00
   0.000000E+00   0.000000E+00   7.719584E-01   7.331312E-01
   1.959284E-02   2.696723E-02   7.560984E-01   7.331312E-01
   3.918568E-02   5.393447E-02   7.416164E-01   7.331312E-01
   5.877853E-02   8.090170E-02   7.279933E-01   7.331312E-01
   7.837137E-02   1.078689E-01   7.150454E-01   7.331312E-01
   9.796421E-02   1.348362E-01   7.026676E-01   7.331312E-01
   1.175571E-01   1.618034E-01   6.907894E-01   7.331312E-01
   1.371499E-01   1.887706E-01   6.793591E-01   7.331312E-01
   1.567427E-01   2.157379E-01   6.683365E-01   7.331312E-01
   1.763356E-01   2.427051E-01   6.576891E-01   7.331312E-01
   1.959284E-01   2.696723E-01   6.473897E-01   7.331312E-01
   2.155213E-01   2.966396E-01   6.374152E-01   7.331312E-01
   2.351141E-01   3.236068E-01   6.277451E-01   7.331312E-01
   2.547069E-01   3.505740E-01   6.183615E-01   7.331312E-01
   2.742998E-01   3.775413E-01   6.092480E-01   7.331312E-01
   2.938926E-01   4.045085E-01   6.003899E-01   7.331312E-01
   3.134855E-01   4.314757E-01   5.917735E-01   7.331312E-01
   3.330783E-01   4.584430E-01   5.833862E-01   7.331312E-01
   3.526712E-01   4.854102E-01   5.752163E-01   7.331312E-01
   3.722640E-01   5.123774E-01   5.672529E-01   7.331312E-01
   3.918568E-01   5.393447E-01   5.594858E-01   7.331312E-01
   4.114497E-01   5.663119E-01   5.519048E-01   7.331312E-01
   4.310425E-01   5.932791E-01   4.802784E-01   6.375111E-01
   4.506354E-01   6.202464E-01   4.116966E-01   5.461423E-01
   4.702282E-01   6.472136E-01   3.459244E-01   4.586627E-01
   4.898210E-01   6.741808E-01   2.827529E-01   3.747547E-01
   5.094139E-01   7.011481E-01   2.219955E-01   2.941381E-01
   5.290067E-01   7.281153E-01   1.634849E-01   2.165643E-01
   5.485996E-01   7.550825E-01   1.070707E-01   1.418121E-01
   5.681924E-01   7.820498E-01   5.261677E-02   6.968329E-02
   5.877853E-01   8.090170E-01   0.000000E+00   0.000000E+00
   0.000000E+00   0.000000E+00   7.719584E-01   7.331312E-01
   1.666667E-02   2.886751E-02   7.560226E-01   7.331312E-01
   3.333333E-02   5.773503E-02   7.414809E-01   7.331312E-01
   5.000000E-02   8.660254E-02   7.278079E-01   7.331312E-01
   6.666667E-02   1.154701E-01   7.148175E-01   7.331312E-01
   8.333333E-02   1.443376E-01   7.024034E-01   7.331312E-01
   1.000000E-01   1.732051E-01   6.904942E-01   7.331312E-01
   1.166667E-01   2.020726E-01   6.790375E-01   7.331312E-01
   1.333333E-01   2.309401E-01   6.679927E-01   7.331312E-01
   1.500000E-01   2.598076E-01   6.573266E-01   7.331312E-01
   1.666667E-01   2.886751E-01   6.470118E-01   7.331312E-01
   1.833333E-01   3.175426E-01   6.370245E-01   7.331312E-01
   2.000000E-01   3.464102E-01   6.273442E-01   7.331312E-01
   2.166667E-01   3.752777E-01   6.179524E-01   7.331312E-01
   2.333333E-01   4.041452E-01   6.088324E-01   7.331312E-01
   2.500000E-01   4.330127E-01   5.999693E-01   7.331312E-01
   2.666667E-01   4.618802E-01   5.913490E-01   7.331312E-01
   2.833333E-01   4.907477E-01   5.829588E-01   7.331312E-01
   3.000000E-01   5.196152E-01   5.747868E-01   7.331312E-01
   3.166667E-01   5.484828E-01   5.668217E-01   7.331312E-01
   3.333333E-01   5.773503E-01   5.590533E-01   7.331312E-01
   3.500000E-01   6.062178E-01   5.514718E-01   7.331312E-01
   3.666667E-01   6.350853E-01   4.799017E-01   6.375111E-01
   3.833333E-01   6.639528E-01   4.113741E-01   5.461423E-01
   4.000000E-01   6.928203E-01   3.456538E-01   4.586627E-01
   4.166667E-01   7.216878E-01   2.825320E-01   3.747547E-01
   4.333333E-01   7.505553E-01   2.218222E-01   2.941381E-01
   4.500000E-01   7.794229E-01   1.633574E-01   2.165643E-01
   4.666667E-01   8.082904E-01   1.069872E-01   1.418121E-01
   4.833333E-01   8.371579E-01   5.257578E-02   6.968329E-02
   5.000000E-01   8.660254E-01   0.000000E+00   0.000000E+00
