TITLE = "Results"
VARIABLES = "X", "Y", "P", "A_p"
ZONE I=   31, J=   11, F=POINT
   0.000000E+00   0.000000E+00   7.720049E-01   7.331312E-01
   3.333333E-02   0.000000E+00   7.631908E-01   7.331312E-01
   6.666667E-02   0.000000E+00   7.544334E-01   7.331312E-01
   1.000000E-01   0.000000E+00   7.457280E-01   7.331312E-01
   1.333333E-01   0.000000E+00   7.370712E-01   7.331312E-01
   1.666667E-01   0.000000E+00   7.284601E-01   7.331312E-01
   2.000000E-01   0.000000E+00   7.198924E-01   7.331312E-01
   2.333333E-01   0.000000E+00   7.113658E-01   7.331312E-01
   2.666667E-01   0.000000E+00   7.028784E-01   7.331312E-01
   3.000000E-01   0.000000E+00   6.944283E-01   7.331312E-01
   3.333333E-01   0.000000E+00   6.860139E-01   7.331312E-01
   3.666667E-01   0.000000E+00   6.776335E-01   7.331312E-01
   4.000000E-01   0.000000E+00   6.692856E-01   7.331312E-01
   4.333333E-01   0.000000E+00   6.609689E-01   7.331312E-01
   4.666667E-01   0.000000E+00   6.526817E-01   7.331312E-01
   5.000000E-01   0.000000E+00   6.444229E-01   7.331312E-01
   5.333333E-01   0.000000E+00   6.361909E-01   7.331312E-01
   5.666667E-01   0.000000E+00   6.279846E-01   7.331312E-01
   6.000000E-01   0.000000E+00   6.198024E-01   7.331312E-01
   6.333333E-01   0.000000E+00   6.116431E-01   7.331312E-01
   6.666667E-01   0.000000E+00   6.035051E-01   7.331312E-01
   7.000000E-01   0.000000E+00   5.953868E-01   7.331312E-01
   7.333333E-01   0.000000E+00   5.107586E-01   6.375111E-01
   7.666667E-01   0.000000E+00   4.364411E-01   5.461423E-01
   8.000000E-01   0.000000E+00   3.658473E-01   4.586627E-01
   8.333333E-01   0.000000E+00   2.985074E-01   3.747547E-01
   8.666667E-01   0.000000E+00   2.340584E-01   2.941381E-01
   9.000000E-01   0.000000E+00   1.722084E-01   2.165643E-01
   9.333333E-01   0.000000E+00   1.127147E-01   1.418121E-01
   9.666667E-01   0.000000E+00   5.537138E-02   6.968329E-02
   1.000000E+00   0.000000E+00   0.000000E+00   0.000000E+00
   0.000000E+00   0.000000E+00   7.720049E-01   7.331312E-01
   3.315073E-02   3.484282E-03   7.619096E-01   7.331312E-01
   6.630146E-02   6.968564E-03   7.520847E-01   7.331312E-01
   9.945219E-02   1.045285E-02   7.424434E-01   7.331312E-01
   1.326029E-01   1.393713E-02   7.329532E-01   7.331312E-01
   1.657536E-01   1.742141E-02   7.235952E-01   7.331312E-01
   1.989044E-01   2.090569E-02   7.143561E-01   7.331312E-01
   2.320551E-01   2.438997E-02   7.052264E-01   7.331312E-01
   2.652058E-01   2.787426E-02   6.961985E-01   7.331312E-01
   2.983566E-01   3.135854E-02   6.872665E-01   7.331312E-01
   3.315073E-01   3.484282E-02   6.784258E-01   7.331312E-01
   3.646580E-01   3.832710E-02   6.696726E-01   7.331312E-01
   3.978088E-01   4.181139E-02   6.610044E-01   7.331312E-01
   4.309595E-01   4.529567E-02   6.524191E-01   7.331312E-01
   4.641102E-01   4.877995E-02   6.439158E-01   7.331312E-01
   4.972609E-01   5.226423E-02   6.354947E-01   7.331312E-01
   5.304117E-01   5.574851E-02   6.271571E-01   7.331312E-01
   5.635624E-01   5.923280E-02   6.189062E-01   7.331312E-01
   5.967131E-01   6.271708E-02   6.107474E-01   7.331312E-01
   6.298639E-01   6.620136E-02   6.026897E-01   7.331312E-01
   6.630146E-01   6.968564E-02   5.947474E-01   7.331312E-01
   6.961653E-01   7.316992E-02   5.869428E-01   7.331312E-01
   7.293161E-01   7.665421E-02   5.089831E-01   6.375111E-01
   7.624668E-01   8.013849E-02   4.351424E-01   5.461423E-01
   7.956175E-01   8.362277E-02   3.648821E-01   4.586627E-01
   8.287682E-01   8.710705E-02   2.977889E-01   3.747547E-01
   8.619190E-01   9.059133E-02   2.335324E-01   2.941381E-01
   8.950697E-01   9.407562E-02   1.718399E-01   2.165643E-01
   9.282204E-01   9.755990E-02   1.124813E-01   1.418121E-01
   9.613712E-01   1.010442E-01   5.525876E-02   6.968329E-02
   9.945219E-01   1.045285E-01   0.000000E+00   0.000000E+00
   0.000000E+00   0.000000E+00   7.720049E-01   7.331312E-01
   3.260492E-02   6.930390E-03   7.607347E-01   7.331312E-01
   6.520984E-02   1.386078E-02   7.499415E-01   7.331312E-01
   9.781476E-02   2.079117E-02   7.394585E-01   7.331312E-01
   1.304197E-01   2.772156E-02   7.292255E-01   7.331312E-01
   1.630246E-01   3.465195E-02   7.192075E-01   7.331312E-01
   1.956295E-01   4.158234E-02   7.093810E-01   7.331312E-01
   2.282344E-01   4.851273E-02   6.997292E-01   7.331312E-01
   2.608394E-01   5.544312E-02   6.902391E-01   7.331312E-01
   2.934443E-01   6.237351E-02   6.809007E-01   7.331312E-01
   3.260492E-01   6.930390E-02   6.717063E-01   7.331312E-01
   3.586541E-01   7.623429E-02   6.626500E-01   7.331312E-01
   3.912590E-01   8.316468E-02   6.537273E-01   7.331312E-01
   4.238640E-01   9.009507E-02   6.449354E-01   7.331312E-01
   4.564689E-01   9.702546E-02   6.362726E-01   7.331312E-01
   4.890738E-01   1.039558E-01   6.277388E-01   7.331312E-01
   5.216787E-01   1.108862E-01   6.193354E-01   7.331312E-01
   5.542836E-01   1.178166E-01   6.110653E-01   7.331312E-01
   5.868886E-01   1.247470E-01   6.029335E-01   7.331312E-01
   6.194935E-01   1.316774E-01   5.949465E-01   7.331312E-01
   6.520984E-01   1.386078E-01   5.871128E-01   7.331312E-01
   6.847033E-01   1.455382E-01   5.794419E-01   7.331312E-01
   7.173082E-01   1.524686E-01   5.036563E-01   6.375111E-01
   7.499132E-01   1.593990E-01   4.312461E-01   5.461423E-01
   7.825181E-01   1.663294E-01   3.619864E-01   4.586627E-01
   8.151230E-01   1.732597E-01   2.956337E-01   3.747547E-01
   8.477279E-01   1.801901E-01   2.319544E-01   2.941381E-01
   8.803328E-01   1.871205E-01   1.707345E-01   2.165643E-01
   9.129378E-01   1.940509E-01   1.117809E-01   1.418121E-01
   9.455427E-01   2.009813E-01   5.492091E-02   6.968329E-02
   9.781476E-01   2.079117E-01   0.000000E+00   0.000000E+00
   0.000000E+00   0.000000E+00   7.720049E-01   7.331312E-01
   3.170188E-02   1.030057E-02   7.596755E-01   7.331312E-01
   6.340377E-02   2.060113E-02   7.480180E-01   7.331312E-01
   9.510565E-02   3.090170E-02   7.367898E-01   7.331312E-01
   1.268075E-01   4.120227E-02   7.259042E-01   7.331312E-01
   1.585094E-01   5.150283E-02   7.153113E-01   7.331312E-01
   1.902113E-01   6.180340E-02   7.049778E-01   7.331312E-01
   2.219132E-01   7.210397E-02   6.948798E-01   7.331312E-01
   2.536151E-01   8.240453E-02   6.849991E-01   7.331312E-01
   2.853170E-01   9.270510E-02   6.753215E-01   7.331312E-01
   3.170188E-01   1.030057E-01   6.658361E-01   7.331312E-01
   3.487207E-01   1.133062E-01   6.565343E-01   7.331312E-01
   3.804226E-01   1.236068E-01   6.474094E-01   7.331312E-01
   4.121245E-01   1.339074E-01   6.384565E-01   7.331312E-01
   4.438264E-01   1.442079E-01   6.296721E-01   7.331312E-01
   4.755283E-01   1.545085E-01   6.210542E-01   7.331312E-01
   5.072301E-01   1.648091E-01   6.126019E-01   7.331312E-01
   5.389320E-01   1.751096E-01   6.043154E-01   7.331312E-01
   5.706339E-01   1.854102E-01   5.961958E-01   7.331312E-01
   6.023358E-01   1.957108E-01   5.882447E-01   7.331312E-01
   6.340377E-01   2.060113E-01   5.804640E-01   7.331312E-01
   6.657396E-01   2.163119E-01   5.728551E-01   7.331312E-01
   6.974414E-01   2.266125E-01   4.982909E-01   6.375111E-01
   7.291433E-01   2.369130E-01   4.269396E-01   5.461423E-01
   7.608452E-01   2.472136E-01   3.585747E-01   4.586627E-01
   7.925471E-01   2.575142E-01   2.929794E-01   3.747547E-01
   8.242490E-01   2.678147E-01   2.299508E-01   2.941381E-01
   8.559509E-01   2.781153E-01   1.693017E-01   2.165643E-01
   8.876527E-01   2.884159E-01   1.108612E-01   1.418121E-01
   9.193546E-01   2.987164E-01   5.447413E-02   6.968329E-02
   9.510565E-01   3.090170E-01   0.000000E+00   0.000000E+00
   0.000000E+00   0.000000E+00   7.720049E-01   7.331312E-01
   3.045152E-02   1.355789E-02   7.587404E-01   7.331312E-01
   6.090303E-02   2.711578E-02   7.463266E-01   7.331312E-01
   9.135455E-02   4.067366E-02   7.344510E-01   7.331312E-01
   1.218061E-01   5.423155E-02   7.230025E-01   7.331312E-01
   1.522576E-01   6.778944E-02   7.119176E-01   7.331312E-01
   1.827091E-01   8.134733E-02   7.011538E-01   7.331312E-01
   2.131606E-01   9.490522E-02   6.906805E-01   7.331312E-01
   2.436121E-01   1.084631E-01   6.804744E-01   7.331312E-01
   2.740636E-01   1.220210E-01   6.705173E-01   7.331312E-01
   3.045152E-01   1.355789E-01   6.607948E-01   7.331312E-01
   3.349667E-01   1.491368E-01   6.512953E-01   7.331312E-01
   3.654182E-01   1.626947E-01   6.420094E-01   7.331312E-01
   3.958697E-01   1.762525E-01   6.329296E-01   7.331312E-01
   4.263212E-01   1.898104E-01   6.240497E-01   7.331312E-01
   4.567727E-01   2.033683E-01   6.153650E-01   7.331312E-01
   4.872242E-01   2.169262E-01   6.068714E-01   7.331312E-01
   5.176758E-01   2.304841E-01   5.985658E-01   7.331312E-01
   5.481273E-01   2.440420E-01   5.904454E-01   7.331312E-01
   5.785788E-01   2.575999E-01   5.825074E-01   7.331312E-01
   6.090303E-01   2.711578E-01   5.747493E-01   7.331312E-01
   6.394818E-01   2.847157E-01   5.671678E-01   7.331312E-01
   6.699333E-01   2.982735E-01   4.934744E-01   6.375111E-01
   7.003849E-01   3.118314E-01   4.229286E-01   5.461423E-01
   7.308364E-01   3.253893E-01   3.552964E-01   4.586627E-01
   7.612879E-01   3.389472E-01   2.903647E-01   3.747547E-01
   7.917394E-01   3.525051E-01   2.279393E-01   2.941381E-01
   8.221909E-01   3.660630E-01   1.678434E-01   2.165643E-01
   8.526424E-01   3.796209E-01   1.099165E-01   1.418121E-01
   8.830939E-01   3.931788E-01   5.401279E-02   6.968329E-02
   9.135455E-01   4.067366E-01   0.000000E+00   0.000000E+00
   0.000000E+00   0.000000E+00   7.720049E-01   7.331312E-01
   2.886751E-02   1.666667E-02   7.579369E-01   7.331312E-01
   5.773503E-02   3.333333E-02   7.448779E-01   7.331312E-01
   8.660254E-02   5.000000E-02   7.324537E-01   7.331312E-01
   1.154701E-01   6.666667E-02   7.205314E-01   7.331312E-01
   1.443376E-01   8.333333E-02   7.090350E-01   7.331312E-01
   1.732051E-01   1.000000E-01   6.979139E-01   7.331312E-01
   2.020726E-01   1.166667E-01   6.871313E-01   7.331312E-01
   2.309401E-01   1.333333E-01   6.766594E-01   7.331312E-01
   2.598076E-01   1.500000E-01   6.664758E-01   7.331312E-01
   2.886751E-01   1.666667E-01   6.565629E-01   7.331312E-01
   3.175426E-01   1.833333E-01   6.469059E-01   7.331312E-01
   3.464102E-01   2.000000E-01   6.374924E-01   7.331312E-01
   3.752777E-01   2.166667E-01   6.283122E-01   7.331312E-01
   4.041452E-01   2.333333E-01   6.193563E-01   7.331312E-01
   4.330127E-01   2.500000E-01   6.106169E-01   7.331312E-01
   4.618802E-01   2.666667E-01   6.020871E-01   7.331312E-01
   4.907477E-01   2.833333E-01   5.937606E-01   7.331312E-01
   5.196152E-01   3.000000E-01   5.856313E-01   7.331312E-01
   5.484828E-01   3.166667E-01   5.776936E-01   7.331312E-01
   5.773503E-01   3.333333E-01   5.699417E-01   7.331312E-01
   6.062178E-01   3.500000E-01   5.623699E-01   7.331312E-01
   6.350853E-01   3.666667E-01   4.893509E-01   6.375111E-01
   6.639528E-01   3.833333E-01   4.194415E-01   5.461423E-01
   6.928203E-01   4.000000E-01   3.524052E-01   4.586627E-01
   7.216878E-01   4.166667E-01   2.880300E-01   3.747547E-01
   7.505553E-01   4.333333E-01   2.261250E-01   2.941381E-01
   7.794229E-01   4.500000E-01   1.665181E-01   2.165643E-01
   8.082904E-01   4.666667E-01   1.090535E-01   1.418121E-01
   8.371579E-01   4.833333E-01   5.359008E-02   6.968329E-02
   8.660254E-01   5.000000E-01   0.000000E+00   0.000000E+00
   0.000000E+00   0.000000E+00   7.720049E-01   7.331312E-01
   2.696723E-02   1.959284E-02   7.572709E-01   7.331312E-01
   5.393447E-02   3.918568E-02   7.436809E-01   7.331312E-01
   8.090170E-02   5.877853E-02   7.308074E-01   7.331312E-01
   1.078689E-01   7.837137E-02   7.184991E-01   7.331312E-01
   1.348362E-01   9.796421E-02   7.066695E-01   7.331312E-01
   1.618034E-01   1.175571E-01   6.952608E-01   7.331312E-01
   1.887706E-01   1.371499E-01   6.842311E-01   7.331312E-01
   2.157379E-01   1.567427E-01   6.735479E-01   7.331312E-01
   2.427051E-01   1.763356E-01   6.631857E-01   7.331312E-01
   2.696723E-01   1.959284E-01   6.531235E-01   7.331312E-01
   2.966396E-01   2.155213E-01   6.433434E-01   7.331312E-01
   3.236068E-01   2.351141E-01   6.338306E-01   7.331312E-01
   3.505740E-01   2.547069E-01   6.245719E-01   7.331312E-01
   3.775413E-01   2.742998E-01   6.155559E-01   7.331312E-01
   4.045085E-01   2.938926E-01   6.067720E-01   7.331312E-01
   4.314757E-01   3.134855E-01   5.982110E-01   7.331312E-01
   4.584430E-01   3.330783E-01   5.898639E-01   7.331312E-01
   4.854102E-01   3.526712E-01   5.817224E-01   7.331312E-01
   5.123774E-01   3.722640E-01   5.737787E-01   7.331312E-01
   5.393447E-01   3.918568E-01   5.660250E-01   7.331312E-01
   5.663119E-01   4.114497E-01   5.584538E-01   7.331312E-01
   5.932791E-01   4.310425E-01   4.859639E-01   6.375111E-01
   6.202464E-01   4.506354E-01   4.165575E-01   5.461423E-01
   6.472136E-01   4.702282E-01   3.499981E-01   4.586627E-01
   6.741808E-01   4.898210E-01   2.860745E-01   3.747547E-01
   7.011481E-01   5.094139E-01   2.245979E-01   2.941381E-01
   7.281153E-01   5.290067E-01   1.653982E-01   2.165643E-01
   7.550825E-01   5.485996E-01   1.083222E-01   1.418121E-01
   7.820498E-01   5.681924E-01   5.323135E-02   6.968329E-02
   8.090170E-01   5.877853E-01   0.000000E+00   0.000000E+00
   0.000000E+00   0.000000E+00   7.720049E-01   7.331312E-01
   2.477149E-02   2.230435E-02   7.567478E-01   7.331312E-01
   4.954299E-02   4.460871E-02   7.427426E-01   7.331312E-01
   7.431448E-02   6.691306E-02   7.295195E-01   7.331312E-01
   9.908598E-02   8.921741E-02   7.169122E-01   7.331312E-01
   1.238575E-01   1.115218E-01   7.048257E-01   7.331312E-01
   1.486290E-01   1.338261E-01   6.931964E-01   7.331312E-01
   1.734005E-01   1.561305E-01   6.819779E-01   7.331312E-01
   1.981720E-01   1.784348E-01   6.711344E-01   7.331312E-01
   2.229434E-01   2.007392E-01   6.606372E-01   7.331312E-01
   2.477149E-01   2.230435E-01   6.504624E-01   7.331312E-01
   2.724864E-01   2.453479E-01   6.405900E-01   7.331312E-01
   2.972579E-01   2.676522E-01   6.310025E-01   7.331312E-01
   3.220294E-01   2.899566E-01   6.216846E-01   7.331312E-01
   3.468009E-01   3.122609E-01   6.126226E-01   7.331312E-01
   3.715724E-01   3.345653E-01   6.038041E-01   7.331312E-01
   3.963439E-01   3.568697E-01   5.952175E-01   7.331312E-01
   4.211154E-01   3.791740E-01   5.868524E-01   7.331312E-01
   4.458869E-01   4.014784E-01   5.786986E-01   7.331312E-01
   4.706584E-01   4.237827E-01   5.707468E-01   7.331312E-01
   4.954299E-01   4.460871E-01   5.629881E-01   7.331312E-01
   5.202014E-01   4.683914E-01   5.554138E-01   7.331312E-01
   5.449729E-01   4.906958E-01   4.833269E-01   6.375111E-01
   5.697444E-01   5.130001E-01   4.143051E-01   5.461423E-01
   5.945159E-01   5.353045E-01   3.481122E-01   4.586627E-01
   6.192874E-01   5.576088E-01   2.845381E-01   3.747547E-01
   6.440588E-01   5.799132E-01   2.233950E-01   2.941381E-01
   6.688303E-01   6.022175E-01   1.645143E-01   2.165643E-01
   6.936018E-01   6.245219E-01   1.077443E-01   1.418121E-01
   7.183733E-01   6.468263E-01   5.294762E-02   6.968329E-02
   7.431448E-01   6.691306E-01   0.000000E+00   0.000000E+00
   0.000000E+00   0.000000E+00   7.720049E-01   7.331312E-01
   2.230435E-02   2.477149E-02   7.563714E-01   7.331312E-01
   4.460871E-02   4.954299E-02   7.420686E-01   7.331312E-01
   6.691306E-02   7.431448E-02   7.285958E-01   7.331312E-01
   8.921741E-02   9.908598E-02   7.157755E-01   7.331312E-01
   1.115218E-01   1.238575E-01   7.035067E-01   7.331312E-01
   1.338261E-01   1.486290E-01   6.917214E-01   7.331312E-01
   1.561305E-01   1.734005E-01   6.803700E-01   7.331312E-01
   1.784348E-01   1.981720E-01   6.694140E-01   7.331312E-01
   2.007392E-01   2.229434E-01   6.588223E-01   7.331312E-01
   2.230435E-01   2.477149E-01   6.485691E-01   7.331312E-01
   2.453479E-01   2.724864E-01   6.386323E-01   7.331312E-01
   2.676522E-01   2.972579E-01   6.289926E-01   7.331312E-01
   2.899566E-01   3.220294E-01   6.196332E-01   7.331312E-01
   3.122609E-01   3.468009E-01   6.105387E-01   7.331312E-01
   3.345653E-01   3.715724E-01   6.016951E-01   7.331312E-01
   3.568697E-01   3.963439E-01   5.930897E-01   7.331312E-01
   3.791740E-01   4.211154E-01   5.847106E-01   7.331312E-01
   4.014784E-01   4.458869E-01   5.765467E-01   7.331312E-01
   4.237827E-01   4.706584E-01   5.685876E-01   7.331312E-01
   4.460871E-01   4.954299E-01   5.608236E-01   7.331312E-01
   4.683914E-01   5.202014E-01   5.532453E-01   7.331312E-01
   4.906958E-01   5.449729E-01   4.814434E-01   6.375111E-01
   5.130001E-01   5.697444E-01   4.126938E-01   5.461423E-01
   5.353045E-01   5.945159E-01   3.467611E-01   4.586627E-01
   5.576088E-01   6.192874E-01   2.834358E-01   3.747547E-01
   5.799132E-01   6.440588E-01   2.225310E-01   2.941381E-01
   6.022175E-01   6.688303E-01   1.638789E-01   2.165643E-01
   6.245219E-01   6.936018E-01   1.073285E-01   1.418121E-01
   6.468263E-01   7.183733E-01   5.274341E-02   6.968329E-02
   6.691306E-01   7.431448E-01   0.000000E+00   0.000000E+00
   0.000000E+00   0.000000E+00   7.720049E-01   7.331312E-01
   1.959284E-02   2.696723E-02   7.561445E-01   7.331312E-01
   3.918568E-02   5.393447E-02   7.416629E-01   7.331312E-01
   5.877853E-02   8.090170E-02   7.280401E-01   7.331312E-01
   7.837137E-02   1.078689E-01   7.150924E-01   7.331312E-01
   9.796421E-02   1.348362E-01   7.027146E-01   7.331312E-01
   1.175571E-01   1.618034E-01   6.908364E-01   7.331312E-01
   1.371499E-01   1.887706E-01   6.794059E-01   7.331312E-01
   1.567427E-01   2.157379E-01   6.683831E-01   7.331312E-01
   1.763356E-01   2.427051E-01   6.577354E-01   7.331312E-01
   1.959284E-01   2.696723E-01   6.474358E-01   7.331312E-01
   2.155213E-01   2.966396E-01   6.374609E-01   7.331312E-01
   2.351141E-01   3.236068E-01   6.277904E-01   7.331312E-01
   2.547069E-01   3.505740E-01   6.184063E-01   7.331312E-01
   2.742998E-01   3.775413E-01   6.092924E-01   7.331312E-01
   2.938926E-01   4.045085E-01   6.004337E-01   7.331312E-01
   3.134855E-01   4.314757E-01   5.918167E-01   7.331312E-01
   3.330783E-01   4.584430E-01   5.834289E-01   7.331312E-01
   3.526712E-01   4.854102E-01   5.752584E-01   7.331312E-01
   3.722640E-01   5.123774E-01   5.672944E-01   7.331312E-01
   3.918568E-01   5.393447E-01   5.595265E-01   7.331312E-01
   4.114497E-01   5.663119E-01   5.519453E-01   7.331312E-01
   4.310425E-01   5.932791E-01   4.803135E-01   6.375111E-01
   4.506354E-01   6.202464E-01   4.117266E-01   5.461423E-01
   4.702282E-01   6.472136E-01   3.459496E-01   4.586627E-01
   4.898210E-01   6.741808E-01   2.827733E-01   3.747547E-01
   5.094139E-01   7.011481E-01   2.220114E-01   2.941381E-01
   5.290067E-01   7.281153E-01   1.634966E-01   2.165643E-01
   5.485996E-01   7.550825E-01   1.070783E-01   1.418121E-01
   5.681924E-01   7.820498E-01   5.262050E-02   6.968329E-02
   5.877853E-01   8.090170E-01   0.000000E+00   0.000000E+00
   0.000000E+00   0.000000E+00   7.720049E-01   7.331312E-01
   1.666667E-02   2.886751E-02   7.560689E-01   7.331312E-01
   3.333333E-02   5.773503E-02   7.415276E-01   7.331312E-01
   5.000000E-02   8.660254E-02   7.278549E-01   7.331312E-01
   6.666667E-02   1.154701E-01   7.148646E-01   7.331312E-01
   8.333333E-02   1.443376E-01   7.024506E-01   7.331312E-01
   1.000000E-01   1.732051E-01   6.905413E-01   7.331312E-01
   1.166667E-01   2.020726E-01   6.790845E-01   7.331312E-01
   1.333333E-01   2.309401E-01   6.680395E-01   7.331312E-01
   1.500000E-01   2.598076E-01   6.573731E-01   7.331312E-01
   1.666667E-01   2.886751E-01   6.470580E-01   7.331312E-01
   1.833333E-01   3.175426E-01   6.370704E-01   7.331312E-01
   2.000000E-01   3.464102E-01   6.273896E-01   7.331312E-01
   2.166667E-01   3.752777E-01   6.179973E-01   7.331312E-01
   2.333333E-01   4.041452E-01   6.088769E-01   7.331312E-01
   2.500000E-01   4.330127E-01   6.000132E-01   7.331312E-01
   2.666667E-01   4.618802E-01   5.913924E-01   7.331312E-01
   2.833333E-01   4.907477E-01   5.830016E-01   7.331312E-01
   3.000000E-01   5.196152E-01   5.748289E-01   7.331312E-01
   3.166667E-01   5.484828E-01   5.668633E-01   7.331312E-01
   3.333333E-01   5.773503E-01   5.590942E-01   7.331312E-01
   3.500000E-01   6.062178E-01   5.515120E-01   7.331312E-01
   3.666667E-01   6.350853E-01   4.799369E-01   6.375111E-01
   3.833333E-01   6.639528E-01   4.114042E-01   5.461423E-01
   4.000000E-01   6.928203E-01   3.456790E-01   4.586627E-01
   4.166667E-01   7.216878E-01   2.825525E-01   3.747547E-01
   4.333333E-01   7.505553E-01   2.218383E-01   2.941381E-01
   4.500000E-01   7.794229E-01   1.633692E-01   2.165643E-01
   4.666667E-01   8.082904E-01   1.069949E-01   1.418121E-01
   4.833333E-01   8.371579E-01   5.257953E-02   6.968329E-02
   5.000000E-01   8.660254E-01   0.000000E+00   0.000000E+00
