TITLE = "Results"
VARIABLES = "X", "Y", "P", "A_p"
ZONE I=   41, J=   41, F=POINT
   0.000000E+00   0.000000E+00   7.340361E-01   7.331312E-01
   2.500000E-02   0.000000E+00   7.339287E-01   7.331312E-01
   5.000000E-02   0.000000E+00   7.338213E-01   7.331312E-01
   7.500000E-02   0.000000E+00   7.337139E-01   7.331312E-01
   1.000000E-01   0.000000E+00   7.336064E-01   7.331312E-01
   1.250000E-01   0.000000E+00   7.334990E-01   7.331312E-01
   1.500000E-01   0.000000E+00   7.333916E-01   7.331312E-01
   1.750000E-01   0.000000E+00   7.332842E-01   7.331312E-01
   2.000000E-01   0.000000E+00   7.331769E-01   7.331312E-01
   2.250000E-01   0.000000E+00   7.330695E-01   7.331312E-01
   2.500000E-01   0.000000E+00   7.329621E-01   7.331312E-01
   2.750000E-01   0.000000E+00   7.328547E-01   7.331312E-01
   3.000000E-01   0.000000E+00   7.327474E-01   7.331312E-01
   3.250000E-01   0.000000E+00   7.326400E-01   7.331312E-01
   3.500000E-01   0.000000E+00   7.325326E-01   7.331312E-01
   3.750000E-01   0.000000E+00   7.324253E-01   7.331312E-01
   4.000000E-01   0.000000E+00   7.323180E-01   7.331312E-01
   4.250000E-01   0.000000E+00   7.322106E-01   7.331312E-01
   4.500000E-01   0.000000E+00   7.321033E-01   7.331312E-01
   4.750000E-01   0.000000E+00   7.319960E-01   7.331312E-01
   5.000000E-01   0.000000E+00   7.318886E-01   7.331312E-01
   5.250000E-01   0.000000E+00   7.317813E-01   7.331312E-01
   5.500000E-01   0.000000E+00   7.316740E-01   7.331312E-01
   5.750000E-01   0.000000E+00   7.315667E-01   7.331312E-01
   6.000000E-01   0.000000E+00   7.314594E-01   7.331312E-01
   6.250000E-01   0.000000E+00   7.313521E-01   7.331312E-01
   6.500000E-01   0.000000E+00   7.312448E-01   7.331312E-01
   6.750000E-01   0.000000E+00   7.311375E-01   7.331312E-01
   7.000000E-01   0.000000E+00   7.310302E-01   7.331312E-01
   7.250000E-01   0.000000E+00   6.590372E-01   6.610023E-01
   7.500000E-01   0.000000E+00   5.895346E-01   5.913191E-01
   7.750000E-01   0.000000E+00   5.223236E-01   5.239209E-01
   8.000000E-01   0.000000E+00   4.572540E-01   4.586627E-01
   8.250000E-01   0.000000E+00   3.941916E-01   3.954128E-01
   8.500000E-01   0.000000E+00   3.330153E-01   3.340512E-01
   8.750000E-01   0.000000E+00   2.736148E-01   2.744685E-01
   9.000000E-01   0.000000E+00   2.158893E-01   2.165643E-01
   9.250000E-01   0.000000E+00   1.597466E-01   1.602468E-01
   9.500000E-01   0.000000E+00   1.051019E-01   1.054313E-01
   9.750000E-01   0.000000E+00   5.187712E-02   5.203975E-02
   1.000000E+00   0.000000E+00   0.000000E+00   4.564039E-16
   0.000000E+00   0.000000E+00   7.340361E-01   7.331312E-01
   2.499143E-02   6.544237E-04   7.339245E-01   7.331312E-01
   4.998287E-02   1.308847E-03   7.338133E-01   7.331312E-01
   7.497430E-02   1.963271E-03   7.337025E-01   7.331312E-01
   9.996573E-02   2.617695E-03   7.335919E-01   7.331312E-01
   1.249572E-01   3.272119E-03   7.334815E-01   7.331312E-01
   1.499486E-01   3.926542E-03   7.333714E-01   7.331312E-01
   1.749400E-01   4.580966E-03   7.332615E-01   7.331312E-01
   1.999315E-01   5.235390E-03   7.331517E-01   7.331312E-01
   2.249229E-01   5.889813E-03   7.330421E-01   7.331312E-01
   2.499143E-01   6.544237E-03   7.329327E-01   7.331312E-01
   2.749058E-01   7.198661E-03   7.328234E-01   7.331312E-01
   2.998972E-01   7.853084E-03   7.327143E-01   7.331312E-01
   3.248886E-01   8.507508E-03   7.326053E-01   7.331312E-01
   3.498801E-01   9.161932E-03   7.324965E-01   7.331312E-01
   3.748715E-01   9.816356E-03   7.323878E-01   7.331312E-01
   3.998629E-01   1.047078E-02   7.322792E-01   7.331312E-01
   4.248544E-01   1.112520E-02   7.321708E-01   7.331312E-01
   4.498458E-01   1.177963E-02   7.320625E-01   7.331312E-01
   4.748372E-01   1.243405E-02   7.319544E-01   7.331312E-01
   4.998287E-01   1.308847E-02   7.318464E-01   7.331312E-01
   5.248201E-01   1.374290E-02   7.317386E-01   7.331312E-01
   5.498115E-01   1.439732E-02   7.316310E-01   7.331312E-01
   5.748030E-01   1.505175E-02   7.315236E-01   7.331312E-01
   5.997944E-01   1.570617E-02   7.314164E-01   7.331312E-01
   6.247858E-01   1.636059E-02   7.313094E-01   7.331312E-01
   6.497773E-01   1.701502E-02   7.312028E-01   7.331312E-01
   6.747687E-01   1.766944E-02   7.310967E-01   7.331312E-01
   6.997601E-01   1.832386E-02   7.309913E-01   7.331312E-01
   7.247516E-01   1.897829E-02   6.590311E-01   6.610023E-01
   7.497430E-01   1.963271E-02   5.895310E-01   5.913191E-01
   7.747344E-01   2.028713E-02   5.223211E-01   5.239209E-01
   7.997259E-01   2.094156E-02   4.572522E-01   4.586627E-01
   8.247173E-01   2.159598E-02   3.941903E-01   3.954128E-01
   8.497087E-01   2.225041E-02   3.330143E-01   3.340512E-01
   8.747002E-01   2.290483E-02   2.736140E-01   2.744685E-01
   8.996916E-01   2.355925E-02   2.158887E-01   2.165643E-01
   9.246830E-01   2.421368E-02   1.597462E-01   1.602468E-01
   9.496745E-01   2.486810E-02   1.051017E-01   1.054313E-01
   9.746659E-01   2.552252E-02   5.187699E-02   5.203975E-02
   9.996573E-01   2.617695E-02   0.000000E+00   4.564039E-16
   0.000000E+00   0.000000E+00   7.340361E-01   7.331312E-01
   2.496574E-02   1.308399E-03   7.339203E-01   7.331312E-01
   4.993148E-02   2.616798E-03   7.338055E-01   7.331312E-01
   7.489722E-02   3.925197E-03   7.336913E-01   7.331312E-01
   9.986295E-02   5.233596E-03   7.335776E-01   7.331312E-01
   1.248287E-01   6.541995E-03   7.334644E-01   7.331312E-01
   1.497944E-01   7.850393E-03   7.333517E-01   7.331312E-01
   1.747602E-01   9.158792E-03   7.332392E-01   7.331312E-01
   1.997259E-01   1.046719E-02   7.331272E-01   7.331312E-01
   2.246916E-01   1.177559E-02   7.330155E-01   7.331312E-01
   2.496574E-01   1.308399E-02   7.329040E-01   7.331312E-01
   2.746231E-01   1.439239E-02   7.327929E-01   7.331312E-01
   2.995889E-01   1.570079E-02   7.326821E-01   7.331312E-01
   3.245546E-01   1.700919E-02   7.325716E-01   7.331312E-01
   3.495203E-01   1.831758E-02   7.324613E-01   7.331312E-01
   3.744861E-01   1.962598E-02   7.323513E-01   7.331312E-01
   3.994518E-01   2.093438E-02   7.322416E-01   7.331312E-01
   4.244176E-01   2.224278E-02   7.321322E-01   7.331312E-01
   4.493833E-01   2.355118E-02   7.320231E-01   7.331312E-01
   4.743490E-01   2.485958E-02   7.319142E-01   7.331312E-01
   4.993148E-01   2.616798E-02   7.318057E-01   7.331312E-01
   5.242805E-01   2.747638E-02   7.316975E-01   7.331312E-01
   5.492462E-01   2.878478E-02   7.315896E-01   7.331312E-01
   5.742120E-01   3.009317E-02   7.314821E-01   7.331312E-01
   5.991777E-01   3.140157E-02   7.313750E-01   7.331312E-01
   6.241435E-01   3.270997E-02   7.312685E-01   7.331312E-01
   6.491092E-01   3.401837E-02   7.311625E-01   7.331312E-01
   6.740749E-01   3.532677E-02   7.310574E-01   7.331312E-01
   6.990407E-01   3.663517E-02   7.309535E-01   7.331312E-01
   7.240064E-01   3.794357E-02   6.590129E-01   6.610023E-01
   7.489722E-01   3.925197E-02   5.895202E-01   5.913191E-01
   7.739379E-01   4.056037E-02   5.223138E-01   5.239209E-01
   7.989036E-01   4.186876E-02   4.572469E-01   4.586627E-01
   8.238694E-01   4.317716E-02   3.941864E-01   3.954128E-01
   8.488351E-01   4.448556E-02   3.330113E-01   3.340512E-01
   8.738008E-01   4.579396E-02   2.736117E-01   2.744685E-01
   8.987666E-01   4.710236E-02   2.158870E-01   2.165643E-01
   9.237323E-01   4.841076E-02   1.597450E-01   1.602468E-01
   9.486981E-01   4.971916E-02   1.051009E-01   1.054313E-01
   9.736638E-01   5.102756E-02   5.187662E-02   5.203975E-02
   9.986295E-01   5.233596E-02   0.000000E+00   4.564039E-16
   0.000000E+00   0.000000E+00   7.340361E-01   7.331312E-01
   2.492293E-02   1.961477E-03   7.339162E-01   7.331312E-01
   4.984587E-02   3.922955E-03   7.337978E-01   7.331312E-01
   7.476880E-02   5.884432E-03   7.336803E-01   7.331312E-01
   9.969173E-02   7.845910E-03   7.335637E-01   7.331312E-01
   1.246147E-01   9.807387E-03   7.334477E-01   7.331312E-01
   1.495376E-01   1.176886E-02   7.333323E-01   7.331312E-01
   1.744605E-01   1.373034E-02   7.332175E-01   7.331312E-01
   1.993835E-01   1.569182E-02   7.331032E-01   7.331312E-01
   2.243064E-01   1.765330E-02   7.329894E-01   7.331312E-01
   2.492293E-01   1.961477E-02   7.328761E-01   7.331312E-01
   2.741523E-01   2.157625E-02   7.327632E-01   7.331312E-01
   2.990752E-01   2.353773E-02   7.326508E-01   7.331312E-01
   3.239981E-01   2.549921E-02   7.325388E-01   7.331312E-01
   3.489211E-01   2.746068E-02   7.324272E-01   7.331312E-01
   3.738440E-01   2.942216E-02   7.323160E-01   7.331312E-01
   3.987669E-01   3.138364E-02   7.322052E-01   7.331312E-01
   4.236899E-01   3.334512E-02   7.320949E-01   7.331312E-01
   4.486128E-01   3.530659E-02   7.319849E-01   7.331312E-01
   4.735357E-01   3.726807E-02   7.318754E-01   7.331312E-01
   4.984587E-01   3.922955E-02   7.317664E-01   7.331312E-01
   5.233816E-01   4.119103E-02   7.316578E-01   7.331312E-01
   5.483045E-01   4.315250E-02   7.315497E-01   7.331312E-01
   5.732275E-01   4.511398E-02   7.314422E-01   7.331312E-01
   5.981504E-01   4.707546E-02   7.313353E-01   7.331312E-01
   6.230733E-01   4.903693E-02   7.312291E-01   7.331312E-01
   6.479963E-01   5.099841E-02   7.311237E-01   7.331312E-01
   6.729192E-01   5.295989E-02   7.310195E-01   7.331312E-01
   6.978421E-01   5.492137E-02   7.309166E-01   7.331312E-01
   7.227651E-01   5.688284E-02   6.589893E-01   6.610023E-01
   7.476880E-01   5.884432E-02   5.895043E-01   5.913191E-01
   7.726109E-01   6.080580E-02   5.223026E-01   5.239209E-01
   7.975339E-01   6.276728E-02   4.572386E-01   4.586627E-01
   8.224568E-01   6.472875E-02   3.941801E-01   3.954128E-01
   8.473797E-01   6.669023E-02   3.330065E-01   3.340512E-01
   8.723027E-01   6.865171E-02   2.736081E-01   2.744685E-01
   8.972256E-01   7.061319E-02   2.158843E-01   2.165643E-01
   9.221485E-01   7.257466E-02   1.597431E-01   1.602468E-01
   9.470715E-01   7.453614E-02   1.050997E-01   1.054313E-01
   9.719944E-01   7.649762E-02   5.187601E-02   5.203975E-02
   9.969173E-01   7.845910E-02   0.000000E+00   4.564039E-16
   0.000000E+00   0.000000E+00   7.340361E-01   7.331312E-01
   2.486305E-02   2.613212E-03   7.339122E-01   7.331312E-01
   4.972609E-02   5.226423E-03   7.337903E-01   7.331312E-01
   7.458914E-02   7.839635E-03   7.336696E-01   7.331312E-01
   9.945219E-02   1.045285E-02   7.335500E-01   7.331312E-01
   1.243152E-01   1.306606E-02   7.334314E-01   7.331312E-01
   1.491783E-01   1.567927E-02   7.333135E-01   7.331312E-01
   1.740413E-01   1.829248E-02   7.331963E-01   7.331312E-01
   1.989044E-01   2.090569E-02   7.330799E-01   7.331312E-01
   2.237674E-01   2.351890E-02   7.329641E-01   7.331312E-01
   2.486305E-01   2.613212E-02   7.328489E-01   7.331312E-01
   2.734935E-01   2.874533E-02   7.327344E-01   7.331312E-01
   2.983566E-01   3.135854E-02   7.326204E-01   7.331312E-01
   3.232196E-01   3.397175E-02   7.325069E-01   7.331312E-01
   3.480827E-01   3.658496E-02   7.323941E-01   7.331312E-01
   3.729457E-01   3.919817E-02   7.322817E-01   7.331312E-01
   3.978088E-01   4.181139E-02   7.321699E-01   7.331312E-01
   4.226718E-01   4.442460E-02   7.320587E-01   7.331312E-01
   4.475349E-01   4.703781E-02   7.319480E-01   7.331312E-01
   4.723979E-01   4.965102E-02   7.318379E-01   7.331312E-01
   4.972609E-01   5.226423E-02   7.317284E-01   7.331312E-01
   5.221240E-01   5.487744E-02   7.316195E-01   7.331312E-01
   5.469870E-01   5.749065E-02   7.315112E-01   7.331312E-01
   5.718501E-01   6.010387E-02   7.314037E-01   7.331312E-01
   5.967131E-01   6.271708E-02   7.312970E-01   7.331312E-01
   6.215762E-01   6.533029E-02   7.311911E-01   7.331312E-01
   6.464392E-01   6.794350E-02   7.310863E-01   7.331312E-01
   6.713023E-01   7.055671E-02   7.309828E-01   7.331312E-01
   6.961653E-01   7.316992E-02   7.308807E-01   7.331312E-01
   7.210284E-01   7.578314E-02   6.589632E-01   6.610023E-01
   7.458914E-01   7.839635E-02   5.894853E-01   5.913191E-01
   7.707545E-01   8.100956E-02   5.222884E-01   5.239209E-01
   7.956175E-01   8.362277E-02   4.572278E-01   4.586627E-01
   8.204806E-01   8.623598E-02   3.941718E-01   3.954128E-01
   8.453436E-01   8.884919E-02   3.330001E-01   3.340512E-01
   8.702067E-01   9.146241E-02   2.736031E-01   2.744685E-01
   8.950697E-01   9.407562E-02   2.158806E-01   2.165643E-01
   9.199328E-01   9.668883E-02   1.597404E-01   1.602468E-01
   9.447958E-01   9.930204E-02   1.050980E-01   1.054313E-01
   9.696588E-01   1.019153E-01   5.187519E-02   5.203975E-02
   9.945219E-01   1.045285E-01   0.000000E+00   4.564039E-16
   0.000000E+00   0.000000E+00   7.340361E-01   7.331312E-01
   2.478612E-02   3.263155E-03   7.339083E-01   7.331312E-01
   4.957224E-02   6.526310E-03   7.337829E-01   7.331312E-01
   7.435836E-02   9.789464E-03   7.336592E-01   7.331312E-01
   9.914449E-02   1.305262E-02   7.335367E-01   7.331312E-01
   1.239306E-01   1.631577E-02   7.334154E-01   7.331312E-01
   1.487167E-01   1.957893E-02   7.332951E-01   7.331312E-01
   1.735029E-01   2.284208E-02   7.331757E-01   7.331312E-01
   1.982890E-01   2.610524E-02   7.330572E-01   7.331312E-01
   2.230751E-01   2.936839E-02   7.329395E-01   7.331312E-01
   2.478612E-01   3.263155E-02   7.328225E-01   7.331312E-01
   2.726473E-01   3.589470E-02   7.327063E-01   7.331312E-01
   2.974335E-01   3.915786E-02   7.325908E-01   7.331312E-01
   3.222196E-01   4.242101E-02   7.324760E-01   7.331312E-01
   3.470057E-01   4.568417E-02   7.323619E-01   7.331312E-01
   3.717918E-01   4.894732E-02   7.322485E-01   7.331312E-01
   3.965779E-01   5.221048E-02   7.321358E-01   7.331312E-01
   4.213641E-01   5.547363E-02   7.320237E-01   7.331312E-01
   4.461502E-01   5.873679E-02   7.319123E-01   7.331312E-01
   4.709363E-01   6.199994E-02   7.318017E-01   7.331312E-01
   4.957224E-01   6.526310E-02   7.316917E-01   7.331312E-01
   5.205086E-01   6.852625E-02   7.315825E-01   7.331312E-01
   5.452947E-01   7.178941E-02   7.314742E-01   7.331312E-01
   5.700808E-01   7.505256E-02   7.313666E-01   7.331312E-01
   5.948669E-01   7.831572E-02   7.312601E-01   7.331312E-01
   6.196530E-01   8.157887E-02   7.311546E-01   7.331312E-01
   6.444392E-01   8.484202E-02   7.310502E-01   7.331312E-01
   6.692253E-01   8.810518E-02   7.309472E-01   7.331312E-01
   6.940114E-01   9.136833E-02   7.308458E-01   7.331312E-01
   7.187975E-01   9.463149E-02   6.589360E-01   6.610023E-01
   7.435836E-01   9.789464E-02   5.894644E-01   5.913191E-01
   7.683698E-01   1.011578E-01   5.222722E-01   5.239209E-01
   7.931559E-01   1.044210E-01   4.572152E-01   4.586627E-01
   8.179420E-01   1.076841E-01   3.941618E-01   3.954128E-01
   8.427281E-01   1.109473E-01   3.329923E-01   3.340512E-01
   8.675143E-01   1.142104E-01   2.735971E-01   2.744685E-01
   8.923004E-01   1.174736E-01   2.158761E-01   2.165643E-01
   9.170865E-01   1.207367E-01   1.597372E-01   1.602468E-01
   9.418726E-01   1.239999E-01   1.050959E-01   1.054313E-01
   9.666587E-01   1.272630E-01   5.187417E-02   5.203975E-02
   9.914449E-01   1.305262E-01   0.000000E+00   4.564039E-16
   0.000000E+00   0.000000E+00   7.340361E-01   7.331312E-01
   2.469221E-02   3.910862E-03   7.339045E-01   7.331312E-01
   4.938442E-02   7.821723E-03   7.337757E-01   7.331312E-01
   7.407663E-02   1.173258E-02   7.336490E-01   7.331312E-01
   9.876883E-02   1.564345E-02   7.335237E-01   7.331312E-01
   1.234610E-01   1.955431E-02   7.333999E-01   7.331312E-01
   1.481533E-01   2.346517E-02   7.332772E-01   7.331312E-01
   1.728455E-01   2.737603E-02   7.331556E-01   7.331312E-01
   1.975377E-01   3.128689E-02   7.330351E-01   7.331312E-01
   2.222299E-01   3.519775E-02   7.329155E-01   7.331312E-01
   2.469221E-01   3.910862E-02   7.327968E-01   7.331312E-01
   2.716143E-01   4.301948E-02   7.326791E-01   7.331312E-01
   2.963065E-01   4.693034E-02   7.325622E-01   7.331312E-01
   3.209987E-01   5.084120E-02   7.324461E-01   7.331312E-01
   3.456909E-01   5.475206E-02   7.323308E-01   7.331312E-01
   3.703831E-01   5.866292E-02   7.322164E-01   7.331312E-01
   3.950753E-01   6.257379E-02   7.321027E-01   7.331312E-01
   4.197675E-01   6.648465E-02   7.319899E-01   7.331312E-01
   4.444598E-01   7.039551E-02   7.318779E-01   7.331312E-01
   4.691520E-01   7.430637E-02   7.317667E-01   7.331312E-01
   4.938442E-01   7.821723E-02   7.316563E-01   7.331312E-01
   5.185364E-01   8.212809E-02   7.315469E-01   7.331312E-01
   5.432286E-01   8.603896E-02   7.314384E-01   7.331312E-01
   5.679208E-01   8.994982E-02   7.313309E-01   7.331312E-01
   5.926130E-01   9.386068E-02   7.312245E-01   7.331312E-01
   6.173052E-01   9.777154E-02   7.311193E-01   7.331312E-01
   6.419974E-01   1.016824E-01   7.310153E-01   7.331312E-01
   6.666896E-01   1.055933E-01   7.309128E-01   7.331312E-01
   6.913818E-01   1.095041E-01   7.308119E-01   7.331312E-01
   7.160740E-01   1.134150E-01   6.589085E-01   6.610023E-01
   7.407663E-01   1.173258E-01   5.894424E-01   5.913191E-01
   7.654585E-01   1.212367E-01   5.222547E-01   5.239209E-01
   7.901507E-01   1.251476E-01   4.572012E-01   4.586627E-01
   8.148429E-01   1.290584E-01   3.941507E-01   3.954128E-01
   8.395351E-01   1.329693E-01   3.329835E-01   3.340512E-01
   8.642273E-01   1.368802E-01   2.735902E-01   2.744685E-01
   8.889195E-01   1.407910E-01   2.158708E-01   2.165643E-01
   9.136117E-01   1.447019E-01   1.597334E-01   1.602468E-01
   9.383039E-01   1.486127E-01   1.050935E-01   1.054313E-01
   9.629961E-01   1.525236E-01   5.187299E-02   5.203975E-02
   9.876883E-01   1.564345E-01   0.000000E+00   4.564039E-16
   0.000000E+00   0.000000E+00   7.340361E-01   7.331312E-01
   2.458137E-02   4.555888E-03   7.339007E-01   7.331312E-01
   4.916275E-02   9.111776E-03   7.337687E-01   7.331312E-01
   7.374412E-02   1.366766E-02   7.336390E-01   7.331312E-01
   9.832549E-02   1.822355E-02   7.335111E-01   7.331312E-01
   1.229069E-01   2.277944E-02   7.333847E-01   7.331312E-01
   1.474882E-01   2.733533E-02   7.332597E-01   7.331312E-01
   1.720696E-01   3.189122E-02   7.331361E-01   7.331312E-01
   1.966510E-01   3.644711E-02   7.330136E-01   7.331312E-01
   2.212324E-01   4.100299E-02   7.328922E-01   7.331312E-01
   2.458137E-01   4.555888E-02   7.327719E-01   7.331312E-01
   2.703951E-01   5.011477E-02   7.326526E-01   7.331312E-01
   2.949765E-01   5.467066E-02   7.325344E-01   7.331312E-01
   3.195578E-01   5.922655E-02   7.324171E-01   7.331312E-01
   3.441392E-01   6.378243E-02   7.323007E-01   7.331312E-01
   3.687206E-01   6.833832E-02   7.321853E-01   7.331312E-01
   3.933020E-01   7.289421E-02   7.320708E-01   7.331312E-01
   4.178833E-01   7.745010E-02   7.319572E-01   7.331312E-01
   4.424647E-01   8.200599E-02   7.318446E-01   7.331312E-01
   4.670461E-01   8.656187E-02   7.317329E-01   7.331312E-01
   4.916275E-01   9.111776E-02   7.316222E-01   7.331312E-01
   5.162088E-01   9.567365E-02   7.315126E-01   7.331312E-01
   5.407902E-01   1.002295E-01   7.314040E-01   7.331312E-01
   5.653716E-01   1.047854E-01   7.312965E-01   7.331312E-01
   5.899529E-01   1.093413E-01   7.311902E-01   7.331312E-01
   6.145343E-01   1.138972E-01   7.310852E-01   7.331312E-01
   6.391157E-01   1.184531E-01   7.309816E-01   7.331312E-01
   6.636971E-01   1.230090E-01   7.308795E-01   7.331312E-01
   6.882784E-01   1.275649E-01   7.307790E-01   7.331312E-01
   7.128598E-01   1.321208E-01   6.588811E-01   6.610023E-01
   7.374412E-01   1.366766E-01   5.894198E-01   5.913191E-01
   7.620226E-01   1.412325E-01   5.222363E-01   5.239209E-01
   7.866039E-01   1.457884E-01   4.571863E-01   4.586627E-01
   8.111853E-01   1.503443E-01   3.941386E-01   3.954128E-01
   8.357667E-01   1.549002E-01   3.329738E-01   3.340512E-01
   8.603480E-01   1.594561E-01   2.735826E-01   2.744685E-01
   8.849294E-01   1.640120E-01   2.158651E-01   2.165643E-01
   9.095108E-01   1.685679E-01   1.597293E-01   1.602468E-01
   9.340922E-01   1.731237E-01   1.050908E-01   1.054313E-01
   9.586735E-01   1.776796E-01   5.187167E-02   5.203975E-02
   9.832549E-01   1.822355E-01   0.000000E+00   4.564039E-16
   0.000000E+00   0.000000E+00   7.340361E-01   7.331312E-01
   2.445369E-02   5.197792E-03   7.338971E-01   7.331312E-01
   4.890738E-02   1.039558E-02   7.337619E-01   7.331312E-01
   7.336107E-02   1.559338E-02   7.336293E-01   7.331312E-01
   9.781476E-02   2.079117E-02   7.334987E-01   7.331312E-01
   1.222685E-01   2.598896E-02   7.333699E-01   7.331312E-01
   1.467221E-01   3.118675E-02   7.332428E-01   7.331312E-01
   1.711758E-01   3.638455E-02   7.331170E-01   7.331312E-01
   1.956295E-01   4.158234E-02   7.329927E-01   7.331312E-01
   2.200832E-01   4.678013E-02   7.328696E-01   7.331312E-01
   2.445369E-01   5.197792E-02   7.327477E-01   7.331312E-01
   2.689906E-01   5.717571E-02   7.326270E-01   7.331312E-01
   2.934443E-01   6.237351E-02   7.325074E-01   7.331312E-01
   3.178980E-01   6.757130E-02   7.323890E-01   7.331312E-01
   3.423517E-01   7.276909E-02   7.322716E-01   7.331312E-01
   3.668054E-01   7.796688E-02   7.321552E-01   7.331312E-01
   3.912590E-01   8.316468E-02   7.320399E-01   7.331312E-01
   4.157127E-01   8.836247E-02   7.319257E-01   7.331312E-01
   4.401664E-01   9.356026E-02   7.318125E-01   7.331312E-01
   4.646201E-01   9.875805E-02   7.317004E-01   7.331312E-01
   4.890738E-01   1.039558E-01   7.315894E-01   7.331312E-01
   5.135275E-01   1.091536E-01   7.314795E-01   7.331312E-01
   5.379812E-01   1.143514E-01   7.313708E-01   7.331312E-01
   5.624349E-01   1.195492E-01   7.312633E-01   7.331312E-01
   5.868886E-01   1.247470E-01   7.311571E-01   7.331312E-01
   6.113423E-01   1.299448E-01   7.310523E-01   7.331312E-01
   6.357959E-01   1.351426E-01   7.309490E-01   7.331312E-01
   6.602496E-01   1.403404E-01   7.308472E-01   7.331312E-01
   6.847033E-01   1.455382E-01   7.307470E-01   7.331312E-01
   7.091570E-01   1.507360E-01   6.588540E-01   6.610023E-01
   7.336107E-01   1.559338E-01   5.893971E-01   5.913191E-01
   7.580644E-01   1.611316E-01   5.222175E-01   5.239209E-01
   7.825181E-01   1.663294E-01   4.571707E-01   4.586627E-01
   8.069718E-01   1.715271E-01   3.941259E-01   3.954128E-01
   8.314255E-01   1.767249E-01   3.329635E-01   3.340512E-01
   8.558792E-01   1.819227E-01   2.735745E-01   2.744685E-01
   8.803328E-01   1.871205E-01   2.158588E-01   2.165643E-01
   9.047865E-01   1.923183E-01   1.597248E-01   1.602468E-01
   9.292402E-01   1.975161E-01   1.050879E-01   1.054313E-01
   9.536939E-01   2.027139E-01   5.187025E-02   5.203975E-02
   9.781476E-01   2.079117E-01   0.000000E+00   4.564039E-16
   0.000000E+00   0.000000E+00   7.340361E-01   7.331312E-01
   2.430925E-02   5.836134E-03   7.338935E-01   7.331312E-01
   4.861850E-02   1.167227E-02   7.337552E-01   7.331312E-01
   7.292774E-02   1.750840E-02   7.336198E-01   7.331312E-01
   9.723699E-02   2.334454E-02   7.334867E-01   7.331312E-01
   1.215462E-01   2.918067E-02   7.333556E-01   7.331312E-01
   1.458555E-01   3.501680E-02   7.332263E-01   7.331312E-01
   1.701647E-01   4.085294E-02   7.330986E-01   7.331312E-01
   1.944740E-01   4.668907E-02   7.329724E-01   7.331312E-01
   2.187832E-01   5.252521E-02   7.328477E-01   7.331312E-01
   2.430925E-01   5.836134E-02   7.327243E-01   7.331312E-01
   2.674017E-01   6.419748E-02   7.326022E-01   7.331312E-01
   2.917110E-01   7.003361E-02   7.324814E-01   7.331312E-01
   3.160202E-01   7.586974E-02   7.323618E-01   7.331312E-01
   3.403295E-01   8.170588E-02   7.322434E-01   7.331312E-01
   3.646387E-01   8.754201E-02   7.321262E-01   7.331312E-01
   3.889480E-01   9.337815E-02   7.320101E-01   7.331312E-01
   4.132572E-01   9.921428E-02   7.318952E-01   7.331312E-01
   4.375665E-01   1.050504E-01   7.317815E-01   7.331312E-01
   4.618757E-01   1.108865E-01   7.316690E-01   7.331312E-01
   4.861850E-01   1.167227E-01   7.315577E-01   7.331312E-01
   5.104942E-01   1.225588E-01   7.314476E-01   7.331312E-01
   5.348035E-01   1.283950E-01   7.313388E-01   7.331312E-01
   5.591127E-01   1.342311E-01   7.312313E-01   7.331312E-01
   5.834220E-01   1.400672E-01   7.311253E-01   7.331312E-01
   6.077312E-01   1.459034E-01   7.310206E-01   7.331312E-01
   6.320404E-01   1.517395E-01   7.309175E-01   7.331312E-01
   6.563497E-01   1.575756E-01   7.308160E-01   7.331312E-01
   6.806589E-01   1.634118E-01   7.307161E-01   7.331312E-01
   7.049682E-01   1.692479E-01   6.588273E-01   6.610023E-01
   7.292774E-01   1.750840E-01   5.893745E-01   5.913191E-01
   7.535867E-01   1.809202E-01   5.221984E-01   5.239209E-01
   7.778959E-01   1.867563E-01   4.571549E-01   4.586627E-01
   8.022052E-01   1.925924E-01   3.941128E-01   3.954128E-01
   8.265144E-01   1.984286E-01   3.329529E-01   3.340512E-01
   8.508237E-01   2.042647E-01   2.735660E-01   2.744685E-01
   8.751329E-01   2.101008E-01   2.158523E-01   2.165643E-01
   8.994422E-01   2.159370E-01   1.597200E-01   1.602468E-01
   9.237514E-01   2.217731E-01   1.050848E-01   1.054313E-01
   9.480607E-01   2.276092E-01   5.186874E-02   5.203975E-02
   9.723699E-01   2.334454E-01   0.000000E+00   4.564039E-16
   0.000000E+00   0.000000E+00   7.340361E-01   7.331312E-01
   2.414815E-02   6.470476E-03   7.338900E-01   7.331312E-01
   4.829629E-02   1.294095E-02   7.337487E-01   7.331312E-01
   7.244444E-02   1.941143E-02   7.336106E-01   7.331312E-01
   9.659258E-02   2.588190E-02   7.334751E-01   7.331312E-01
   1.207407E-01   3.235238E-02   7.333417E-01   7.331312E-01
   1.448889E-01   3.882286E-02   7.332103E-01   7.331312E-01
   1.690370E-01   4.529333E-02   7.330807E-01   7.331312E-01
   1.931852E-01   5.176381E-02   7.329528E-01   7.331312E-01
   2.173333E-01   5.823429E-02   7.328265E-01   7.331312E-01
   2.414815E-01   6.470476E-02   7.327016E-01   7.331312E-01
   2.656296E-01   7.117524E-02   7.325782E-01   7.331312E-01
   2.897777E-01   7.764571E-02   7.324562E-01   7.331312E-01
   3.139259E-01   8.411619E-02   7.323356E-01   7.331312E-01
   3.380740E-01   9.058667E-02   7.322162E-01   7.331312E-01
   3.622222E-01   9.705714E-02   7.320982E-01   7.331312E-01
   3.863703E-01   1.035276E-01   7.319814E-01   7.331312E-01
   4.105185E-01   1.099981E-01   7.318659E-01   7.331312E-01
   4.346666E-01   1.164686E-01   7.317517E-01   7.331312E-01
   4.588148E-01   1.229390E-01   7.316388E-01   7.331312E-01
   4.829629E-01   1.294095E-01   7.315272E-01   7.331312E-01
   5.071111E-01   1.358800E-01   7.314169E-01   7.331312E-01
   5.312592E-01   1.423505E-01   7.313081E-01   7.331312E-01
   5.554074E-01   1.488210E-01   7.312006E-01   7.331312E-01
   5.795555E-01   1.552914E-01   7.310945E-01   7.331312E-01
   6.037036E-01   1.617619E-01   7.309900E-01   7.331312E-01
   6.278518E-01   1.682324E-01   7.308871E-01   7.331312E-01
   6.519999E-01   1.747029E-01   7.307858E-01   7.331312E-01
   6.761481E-01   1.811733E-01   7.306861E-01   7.331312E-01
   7.002962E-01   1.876438E-01   6.588013E-01   6.610023E-01
   7.244444E-01   1.941143E-01   5.893522E-01   5.913191E-01
   7.485925E-01   2.005848E-01   5.221794E-01   5.239209E-01
   7.727407E-01   2.070552E-01   4.571389E-01   4.586627E-01
   7.968888E-01   2.135257E-01   3.940995E-01   3.954128E-01
   8.210370E-01   2.199962E-01   3.329420E-01   3.340512E-01
   8.451851E-01   2.264667E-01   2.735573E-01   2.744685E-01
   8.693332E-01   2.329371E-01   2.158456E-01   2.165643E-01
   8.934814E-01   2.394076E-01   1.597151E-01   1.602468E-01
   9.176295E-01   2.458781E-01   1.050816E-01   1.054313E-01
   9.417777E-01   2.523486E-01   5.186718E-02   5.203975E-02
   9.659258E-01   2.588190E-01   0.000000E+00   4.564039E-16
   0.000000E+00   0.000000E+00   7.340361E-01   7.331312E-01
   2.397049E-02   7.100384E-03   7.338866E-01   7.331312E-01
   4.794099E-02   1.420077E-02   7.337424E-01   7.331312E-01
   7.191148E-02   2.130115E-02   7.336017E-01   7.331312E-01
   9.588197E-02   2.840153E-02   7.334637E-01   7.331312E-01
   1.198525E-01   3.550192E-02   7.333282E-01   7.331312E-01
   1.438230E-01   4.260230E-02   7.331948E-01   7.331312E-01
   1.677935E-01   4.970269E-02   7.330634E-01   7.331312E-01
   1.917639E-01   5.680307E-02   7.329338E-01   7.331312E-01
   2.157344E-01   6.390345E-02   7.328059E-01   7.331312E-01
   2.397049E-01   7.100384E-02   7.326797E-01   7.331312E-01
   2.636754E-01   7.810422E-02   7.325550E-01   7.331312E-01
   2.876459E-01   8.520460E-02   7.324319E-01   7.331312E-01
   3.116164E-01   9.230499E-02   7.323102E-01   7.331312E-01
   3.355869E-01   9.940537E-02   7.321900E-01   7.331312E-01
   3.595574E-01   1.065058E-01   7.320712E-01   7.331312E-01
   3.835279E-01   1.136061E-01   7.319537E-01   7.331312E-01
   4.074984E-01   1.207065E-01   7.318377E-01   7.331312E-01
   4.314689E-01   1.278069E-01   7.317230E-01   7.331312E-01
   4.554394E-01   1.349073E-01   7.316097E-01   7.331312E-01
   4.794099E-01   1.420077E-01   7.314979E-01   7.331312E-01
   5.033804E-01   1.491081E-01   7.313874E-01   7.331312E-01
   5.273509E-01   1.562084E-01   7.312784E-01   7.331312E-01
   5.513213E-01   1.633088E-01   7.311709E-01   7.331312E-01
   5.752918E-01   1.704092E-01   7.310650E-01   7.331312E-01
   5.992623E-01   1.775096E-01   7.309606E-01   7.331312E-01
   6.232328E-01   1.846100E-01   7.308577E-01   7.331312E-01
   6.472033E-01   1.917104E-01   7.307566E-01   7.331312E-01
   6.711738E-01   1.988107E-01   7.306571E-01   7.331312E-01
   6.951443E-01   2.059111E-01   6.587759E-01   6.610023E-01
   7.191148E-01   2.130115E-01   5.893302E-01   5.913191E-01